n -t * -s 0  -x 0 -y 0 -Z 0 -z 20  -v circle -c green
n -t * -s 1  -x 100 -y 0 -Z 0 -z 20  -v circle -c green
n -t * -s 2  -x 200 -y 0 -Z 0 -z 20  -v circle -c green
n -t * -s 3  -x 300 -y 0 -Z 0 -z 20  -v circle -c green
n -t * -s 4  -x 400 -y 0 -Z 0 -z 20  -v circle -c green
n -t * -s 5  -x 0 -y 62 -Z 0 -z 20  -v circle -c green
n -t * -s 6  -x 100 -y 62 -Z 0 -z 20  -v circle -c green
n -t * -s 7  -x 200 -y 62 -Z 0 -z 20  -v circle -c green
n -t * -s 8  -x 300 -y 62 -Z 0 -z 20  -v circle -c green
n -t * -s 9  -x 400 -y 62 -Z 0 -z 20  -v circle -c green
n -t * -s 10  -x 0 -y 124 -Z 0 -z 20  -v circle -c green
n -t * -s 11  -x 100 -y 124 -Z 0 -z 20  -v circle -c green
n -t * -s 12  -x 200 -y 124 -Z 0 -z 20  -v circle -c green
n -t * -s 13  -x 300 -y 124 -Z 0 -z 20  -v circle -c green
n -t * -s 14  -x 400 -y 124 -Z 0 -z 20  -v circle -c green
n -t * -s 15  -x 0 -y 186 -Z 0 -z 20  -v circle -c green
n -t * -s 16  -x 100 -y 186 -Z 0 -z 20  -v circle -c green
n -t * -s 17  -x 200 -y 186 -Z 0 -z 20  -v circle -c green
n -t * -s 18  -x 300 -y 186 -Z 0 -z 20  -v circle -c green
n -t * -s 19  -x 400 -y 186 -Z 0 -z 20  -v circle -c green
n -t * -s 20  -x 0 -y 248 -Z 0 -z 20  -v circle -c green
n -t * -s 21  -x 100 -y 248 -Z 0 -z 20  -v circle -c green
n -t * -s 22  -x 200 -y 248 -Z 0 -z 20  -v circle -c green
n -t * -s 23  -x 300 -y 248 -Z 0 -z 20  -v circle -c green
n -t * -s 24  -x 400 -y 248 -Z 0 -z 20  -v circle -c green
n -t * -s 25  -x 0 -y 310 -Z 0 -z 20  -v circle -c green
n -t * -s 26  -x 100 -y 310 -Z 0 -z 20  -v circle -c green
n -t * -s 27  -x 200 -y 310 -Z 0 -z 20  -v circle -c green
n -t * -s 28  -x 300 -y 310 -Z 0 -z 20  -v circle -c green
n -t * -s 29  -x 400 -y 310 -Z 0 -z 20  -v circle -c green
n -t * -s 30  -x 0 -y 372 -Z 0 -z 20  -v circle -c green
n -t * -s 31  -x 100 -y 372 -Z 0 -z 20  -v circle -c green
n -t * -s 32  -x 200 -y 372 -Z 0 -z 20  -v circle -c green
n -t * -s 33  -x 300 -y 372 -Z 0 -z 20  -v circle -c green
n -t * -s 34  -x 400 -y 372 -Z 0 -z 20  -v circle -c green
n -t * -s 35  -x 0 -y 434 -Z 0 -z 20  -v circle -c green
n -t * -s 36  -x 100 -y 434 -Z 0 -z 20  -v circle -c green
n -t * -s 37  -x 200 -y 434 -Z 0 -z 20  -v circle -c green
n -t * -s 38  -x 300 -y 434 -Z 0 -z 20  -v circle -c green
n -t * -s 39  -x 400 -y 434 -Z 0 -z 20  -v circle -c green
V -t * -v 1.0a5 -a 0
W -t * -x 500 -y 500
A -t * -n 1 -p 0 -o 0x7fffffff -c 30 -a 1
A -t * -h 1 -m 1073741823 -s 0
n -t 0.000000 -s 0 -x 0.000000 -y 0.000000 -U 9.802120 -V 1.979504 -T 41.929703
n -t 0.000000 -s 1 -x 100.000000 -y 0.000000 -U 4.090559 -V 9.125093 -T 41.314646
n -t 0.000000 -s 2 -x 200.000000 -y 0.000000 -U -7.853555 -V 6.190450 -T 21.646247
n -t 0.000000 -s 3 -x 300.000000 -y 0.000000 -U -1.746154 -V 9.846367 -T 41.233482
n -t 0.000000 -s 4 -x 400.000000 -y 0.000000 -U -9.429903 -V 3.328201 -T 41.463840
n -t 0.000000 -s 5 -x 0.000000 -y 62.000000 -U 8.611047 -V 5.084277 -T 55.858482
n -t 0.000000 -s 6 -x 100.000000 -y 62.000000 -U 5.032235 -V 8.641563 -T 28.814233
n -t 0.000000 -s 7 -x 200.000000 -y 62.000000 -U 4.911409 -V 8.710801 -T 10.791200
n -t 0.000000 -s 8 -x 300.000000 -y 62.000000 -U -0.188646 -V 9.998220 -T 42.407546
n -t 0.000000 -s 9 -x 400.000000 -y 62.000000 -U 9.092376 -V 4.162775 -T 9.128527
n -t 0.000000 -s 10 -x 0.000000 -y 124.000000 -U 7.893522 -V 6.139406 -T 37.625789
n -t 0.000000 -s 11 -x 100.000000 -y 124.000000 -U 6.833685 -V 7.300736 -T 40.680831
n -t 0.000000 -s 12 -x 200.000000 -y 124.000000 -U 9.679641 -V 2.510884 -T 27.480357
n -t 0.000000 -s 13 -x 300.000000 -y 124.000000 -U 6.919054 -V 7.219882 -T 19.944924
n -t 0.000000 -s 14 -x 400.000000 -y 124.000000 -U -8.212574 -V 5.705578 -T 46.270509
n -t 0.000000 -s 15 -x 0.000000 -y 186.000000 -U 3.490549 -V 9.371023 -T 31.800157
n -t 0.000000 -s 16 -x 100.000000 -y 186.000000 -U 9.999400 -V -0.109582 -T 36.502192
n -t 0.000000 -s 17 -x 200.000000 -y 186.000000 -U -9.284767 -V -3.713907 -T 17.232527
n -t 0.000000 -s 18 -x 300.000000 -y 186.000000 -U 4.662391 -V 8.846588 -T 16.729614
n -t 0.000000 -s 19 -x 400.000000 -y 186.000000 -U -9.715984 -V 2.366357 -T 35.920189
n -t 0.000000 -s 20 -x 0.000000 -y 248.000000 -U 9.275189 -V -3.737763 -T 36.117863
n -t 0.000000 -s 21 -x 100.000000 -y 248.000000 -U 8.420324 -V 5.394270 -T 30.402631
n -t 0.000000 -s 22 -x 200.000000 -y 248.000000 -U -7.186021 -V -6.954214 -T 12.941793
n -t 0.000000 -s 23 -x 300.000000 -y 248.000000 -U -6.390197 -V 7.691904 -T 8.450444
n -t 0.000000 -s 24 -x 400.000000 -y 248.000000 -U -6.775934 -V 7.354367 -T 24.203306
n -t 0.000000 -s 25 -x 0.000000 -y 310.000000 -U 7.474093 -V -6.643638 -T 15.654073
n -t 0.000000 -s 26 -x 100.000000 -y 310.000000 -U 6.960314 -V -7.180113 -T 40.946428
n -t 0.000000 -s 27 -x 200.000000 -y 310.000000 -U -1.240347 -V -9.922779 -T 16.124515
n -t 0.000000 -s 28 -x 300.000000 -y 310.000000 -U -8.277809 -V 5.610515 -T 21.744884
n -t 0.000000 -s 29 -x 400.000000 -y 310.000000 -U -8.656086 -V 5.007213 -T 37.545839
n -t 0.000000 -s 30 -x 0.000000 -y 372.000000 -U 8.458847 -V -5.333657 -T 23.998542
n -t 0.000000 -s 31 -x 100.000000 -y 372.000000 -U 4.038243 -V -9.148366 -T 40.116455
n -t 0.000000 -s 32 -x 200.000000 -y 372.000000 -U 8.416339 -V 5.400484 -T 14.257980
n -t 0.000000 -s 33 -x 300.000000 -y 372.000000 -U 6.922252 -V 7.216816 -T 6.789698
n -t 0.000000 -s 34 -x 400.000000 -y 372.000000 -U -9.894248 -V -1.450466 -T 19.304145
n -t 0.000000 -s 35 -x 0.000000 -y 434.000000 -U 9.834532 -V 1.811624 -T 7.727872
n -t 0.000000 -s 36 -x 100.000000 -y 434.000000 -U 3.066016 -V -9.518379 -T 21.852460
n -t 0.000000 -s 37 -x 200.000000 -y 434.000000 -U -3.891578 -V -9.211711 -T 20.300246
n -t 0.000000 -s 38 -x 300.000000 -y 434.000000 -U 2.353306 -V -9.719154 -T 42.493411
n -t 0.000000 -s 39 -x 400.000000 -y 434.000000 -U -5.229482 -V -8.523644 -T 24.285387
+ -t 0.036328457 -s 11 -d -1 -p message -e 32 -c 2 -a 0 -i 0 -k RTR 
- -t 0.036328457 -s 11 -d -1 -p message -e 32 -c 2 -a 0 -i 0 -k RTR
h -t 0.036328457 -s 11 -d -1 -p message -e 32 -c 2 -a 0 -i 0 -k RTR
r -t 0.038778663 -s 16 -d -1 -p message -e 32 -c 2 -a 0 -i 0 -k RTR
r -t 0.038778664 -s 6 -d -1 -p message -e 32 -c 2 -a 0 -i 0 -k RTR
r -t 0.038778790 -s 10 -d -1 -p message -e 32 -c 2 -a 0 -i 0 -k RTR
r -t 0.038778847 -s 17 -d -1 -p message -e 32 -c 2 -a 0 -i 0 -k RTR
r -t 0.038778849 -s 7 -d -1 -p message -e 32 -c 2 -a 0 -i 0 -k RTR
r -t 0.038778849 -s 5 -d -1 -p message -e 32 -c 2 -a 0 -i 0 -k RTR
r -t 0.038778870 -s 21 -d -1 -p message -e 32 -c 2 -a 0 -i 0 -k RTR
r -t 0.038778870 -s 1 -d -1 -p message -e 32 -c 2 -a 0 -i 0 -k RTR
r -t 0.038778986 -s 22 -d -1 -p message -e 32 -c 2 -a 0 -i 0 -k RTR
r -t 0.038778987 -s 20 -d -1 -p message -e 32 -c 2 -a 0 -i 0 -k RTR
r -t 0.038778987 -s 2 -d -1 -p message -e 32 -c 2 -a 0 -i 0 -k RTR
r -t 0.038778988 -s 0 -d -1 -p message -e 32 -c 2 -a 0 -i 0 -k RTR
r -t 0.038779075 -s 26 -d -1 -p message -e 32 -c 2 -a 0 -i 0 -k RTR
r -t 0.038779154 -s 8 -d -1 -p message -e 32 -c 2 -a 0 -i 0 -k RTR
r -t 0.038779155 -s 18 -d -1 -p message -e 32 -c 2 -a 0 -i 0 -k RTR
r -t 0.038779159 -s 25 -d -1 -p message -e 32 -c 2 -a 0 -i 0 -k RTR
r -t 0.038779240 -s 23 -d -1 -p message -e 32 -c 2 -a 0 -i 0 -k RTR
r -t 0.038779240 -s 3 -d -1 -p message -e 32 -c 2 -a 0 -i 0 -k RTR
r -t 0.038779282 -s 31 -d -1 -p message -e 32 -c 2 -a 0 -i 0 -k RTR
+ -t 0.067811063 -s 4 -d -1 -p message -e 32 -c 2 -a 0 -i 1 -k RTR 
- -t 0.067811063 -s 4 -d -1 -p message -e 32 -c 2 -a 0 -i 1 -k RTR
h -t 0.067811063 -s 4 -d -1 -p message -e 32 -c 2 -a 0 -i 1 -k RTR
r -t 0.070581270 -s 9 -d -1 -p message -e 32 -c 2 -a 0 -i 1 -k RTR
r -t 0.070581395 -s 3 -d -1 -p message -e 32 -c 2 -a 0 -i 1 -k RTR
r -t 0.070581454 -s 8 -d -1 -p message -e 32 -c 2 -a 0 -i 1 -k RTR
r -t 0.070581477 -s 14 -d -1 -p message -e 32 -c 2 -a 0 -i 1 -k RTR
r -t 0.070581683 -s 19 -d -1 -p message -e 32 -c 2 -a 0 -i 1 -k RTR
r -t 0.070581758 -s 7 -d -1 -p message -e 32 -c 2 -a 0 -i 1 -k RTR
r -t 0.070581767 -s 18 -d -1 -p message -e 32 -c 2 -a 0 -i 1 -k RTR
r -t 0.070581844 -s 12 -d -1 -p message -e 32 -c 2 -a 0 -i 1 -k RTR
+ -t 0.079560646 -s 31 -d -1 -p message -e 32 -c 2 -a 0 -i 2 -k RTR 
- -t 0.079560646 -s 31 -d -1 -p message -e 32 -c 2 -a 0 -i 2 -k RTR
h -t 0.079560646 -s 31 -d -1 -p message -e 32 -c 2 -a 0 -i 2 -k RTR
r -t 0.082970852 -s 26 -d -1 -p message -e 32 -c 2 -a 0 -i 2 -k RTR
r -t 0.082970853 -s 36 -d -1 -p message -e 32 -c 2 -a 0 -i 2 -k RTR
r -t 0.082970978 -s 30 -d -1 -p message -e 32 -c 2 -a 0 -i 2 -k RTR
r -t 0.082970981 -s 32 -d -1 -p message -e 32 -c 2 -a 0 -i 2 -k RTR
r -t 0.082971037 -s 37 -d -1 -p message -e 32 -c 2 -a 0 -i 2 -k RTR
r -t 0.082971037 -s 25 -d -1 -p message -e 32 -c 2 -a 0 -i 2 -k RTR
r -t 0.082971037 -s 27 -d -1 -p message -e 32 -c 2 -a 0 -i 2 -k RTR
r -t 0.082971039 -s 35 -d -1 -p message -e 32 -c 2 -a 0 -i 2 -k RTR
r -t 0.082971056 -s 21 -d -1 -p message -e 32 -c 2 -a 0 -i 2 -k RTR
r -t 0.082971175 -s 22 -d -1 -p message -e 32 -c 2 -a 0 -i 2 -k RTR
r -t 0.082971175 -s 20 -d -1 -p message -e 32 -c 2 -a 0 -i 2 -k RTR
r -t 0.082971264 -s 16 -d -1 -p message -e 32 -c 2 -a 0 -i 2 -k RTR
r -t 0.082971340 -s 28 -d -1 -p message -e 32 -c 2 -a 0 -i 2 -k RTR
r -t 0.082971344 -s 38 -d -1 -p message -e 32 -c 2 -a 0 -i 2 -k RTR
r -t 0.082971346 -s 15 -d -1 -p message -e 32 -c 2 -a 0 -i 2 -k RTR
r -t 0.082971347 -s 17 -d -1 -p message -e 32 -c 2 -a 0 -i 2 -k RTR
r -t 0.082971426 -s 23 -d -1 -p message -e 32 -c 2 -a 0 -i 2 -k RTR
r -t 0.082971469 -s 11 -d -1 -p message -e 32 -c 2 -a 0 -i 2 -k RTR
+ -t 0.100000000 -s 13 -d -1 -p tcp -e 40 -c 2 -a 0 -i 3 -k AGT 
- -t 0.100000000 -s 13 -d -1 -p tcp -e 40 -c 2 -a 0 -i 3 -k AGT
h -t 0.100000000 -s 13 -d -1 -p tcp -e 40 -c 2 -a 0 -i 3 -k AGT
+ -t 0.100000000 -s 22 -d -1 -p tcp -e 40 -c 2 -a 0 -i 4 -k AGT 
- -t 0.100000000 -s 22 -d -1 -p tcp -e 40 -c 2 -a 0 -i 4 -k AGT
h -t 0.100000000 -s 22 -d -1 -p tcp -e 40 -c 2 -a 0 -i 4 -k AGT
+ -t 0.100000000 -s 2 -d -1 -p tcp -e 40 -c 2 -a 0 -i 5 -k AGT 
- -t 0.100000000 -s 2 -d -1 -p tcp -e 40 -c 2 -a 0 -i 5 -k AGT
h -t 0.100000000 -s 2 -d -1 -p tcp -e 40 -c 2 -a 0 -i 5 -k AGT
+ -t 0.100000000 -s 14 -d -1 -p tcp -e 40 -c 2 -a 0 -i 6 -k AGT 
- -t 0.100000000 -s 14 -d -1 -p tcp -e 40 -c 2 -a 0 -i 6 -k AGT
h -t 0.100000000 -s 14 -d -1 -p tcp -e 40 -c 2 -a 0 -i 6 -k AGT
+ -t 0.100000000 -s 38 -d -1 -p tcp -e 40 -c 2 -a 0 -i 7 -k AGT 
- -t 0.100000000 -s 38 -d -1 -p tcp -e 40 -c 2 -a 0 -i 7 -k AGT
h -t 0.100000000 -s 38 -d -1 -p tcp -e 40 -c 2 -a 0 -i 7 -k AGT
+ -t 0.100000000 -s 38 -d 31 -p tcp -e 60 -c 2 -a 0 -i 7 -k RTR 
- -t 0.100000000 -s 38 -d 31 -p tcp -e 60 -c 2 -a 0 -i 7 -k RTR
h -t 0.100000000 -s 38 -d 31 -p tcp -e 60 -c 2 -a 0 -i 7 -k RTR
+ -t 0.100000000 -s 3 -d -1 -p tcp -e 40 -c 2 -a 0 -i 8 -k AGT 
- -t 0.100000000 -s 3 -d -1 -p tcp -e 40 -c 2 -a 0 -i 8 -k AGT
h -t 0.100000000 -s 3 -d -1 -p tcp -e 40 -c 2 -a 0 -i 8 -k AGT
+ -t 0.100000000 -s 9 -d -1 -p tcp -e 40 -c 2 -a 0 -i 9 -k AGT 
- -t 0.100000000 -s 9 -d -1 -p tcp -e 40 -c 2 -a 0 -i 9 -k AGT
h -t 0.100000000 -s 9 -d -1 -p tcp -e 40 -c 2 -a 0 -i 9 -k AGT
+ -t 0.100000000 -s 18 -d -1 -p tcp -e 40 -c 2 -a 0 -i 10 -k AGT 
- -t 0.100000000 -s 18 -d -1 -p tcp -e 40 -c 2 -a 0 -i 10 -k AGT
h -t 0.100000000 -s 18 -d -1 -p tcp -e 40 -c 2 -a 0 -i 10 -k AGT
+ -t 0.100000000 -s 13 -d -1 -p tcp -e 40 -c 2 -a 0 -i 11 -k AGT 
- -t 0.100000000 -s 13 -d -1 -p tcp -e 40 -c 2 -a 0 -i 11 -k AGT
h -t 0.100000000 -s 13 -d -1 -p tcp -e 40 -c 2 -a 0 -i 11 -k AGT
+ -t 0.100000000 -s 37 -d -1 -p tcp -e 40 -c 2 -a 0 -i 12 -k AGT 
- -t 0.100000000 -s 37 -d -1 -p tcp -e 40 -c 2 -a 0 -i 12 -k AGT
h -t 0.100000000 -s 37 -d -1 -p tcp -e 40 -c 2 -a 0 -i 12 -k AGT
+ -t 0.100000000 -s 6 -d -1 -p tcp -e 40 -c 2 -a 0 -i 13 -k AGT 
- -t 0.100000000 -s 6 -d -1 -p tcp -e 40 -c 2 -a 0 -i 13 -k AGT
h -t 0.100000000 -s 6 -d -1 -p tcp -e 40 -c 2 -a 0 -i 13 -k AGT
+ -t 0.100000000 -s 5 -d -1 -p tcp -e 40 -c 2 -a 0 -i 14 -k AGT 
- -t 0.100000000 -s 5 -d -1 -p tcp -e 40 -c 2 -a 0 -i 14 -k AGT
h -t 0.100000000 -s 5 -d -1 -p tcp -e 40 -c 2 -a 0 -i 14 -k AGT
+ -t 0.100000000 -s 18 -d -1 -p tcp -e 40 -c 2 -a 0 -i 15 -k AGT 
- -t 0.100000000 -s 18 -d -1 -p tcp -e 40 -c 2 -a 0 -i 15 -k AGT
h -t 0.100000000 -s 18 -d -1 -p tcp -e 40 -c 2 -a 0 -i 15 -k AGT
+ -t 0.100000000 -s 37 -d -1 -p tcp -e 40 -c 2 -a 0 -i 16 -k AGT 
- -t 0.100000000 -s 37 -d -1 -p tcp -e 40 -c 2 -a 0 -i 16 -k AGT
h -t 0.100000000 -s 37 -d -1 -p tcp -e 40 -c 2 -a 0 -i 16 -k AGT
+ -t 0.100000000 -s 24 -d -1 -p tcp -e 40 -c 2 -a 0 -i 17 -k AGT 
- -t 0.100000000 -s 24 -d -1 -p tcp -e 40 -c 2 -a 0 -i 17 -k AGT
h -t 0.100000000 -s 24 -d -1 -p tcp -e 40 -c 2 -a 0 -i 17 -k AGT
+ -t 0.100000000 -s 18 -d -1 -p tcp -e 40 -c 2 -a 0 -i 18 -k AGT 
- -t 0.100000000 -s 18 -d -1 -p tcp -e 40 -c 2 -a 0 -i 18 -k AGT
h -t 0.100000000 -s 18 -d -1 -p tcp -e 40 -c 2 -a 0 -i 18 -k AGT
+ -t 0.100000000 -s 8 -d -1 -p tcp -e 40 -c 2 -a 0 -i 19 -k AGT 
- -t 0.100000000 -s 8 -d -1 -p tcp -e 40 -c 2 -a 0 -i 19 -k AGT
h -t 0.100000000 -s 8 -d -1 -p tcp -e 40 -c 2 -a 0 -i 19 -k AGT
+ -t 0.100000000 -s 31 -d -1 -p tcp -e 40 -c 2 -a 0 -i 20 -k AGT 
- -t 0.100000000 -s 31 -d -1 -p tcp -e 40 -c 2 -a 0 -i 20 -k AGT
h -t 0.100000000 -s 31 -d -1 -p tcp -e 40 -c 2 -a 0 -i 20 -k AGT
+ -t 0.100000000 -s 19 -d -1 -p tcp -e 40 -c 2 -a 0 -i 21 -k AGT 
- -t 0.100000000 -s 19 -d -1 -p tcp -e 40 -c 2 -a 0 -i 21 -k AGT
h -t 0.100000000 -s 19 -d -1 -p tcp -e 40 -c 2 -a 0 -i 21 -k AGT
+ -t 0.100000000 -s 17 -d -1 -p tcp -e 40 -c 2 -a 0 -i 22 -k AGT 
- -t 0.100000000 -s 17 -d -1 -p tcp -e 40 -c 2 -a 0 -i 22 -k AGT
h -t 0.100000000 -s 17 -d -1 -p tcp -e 40 -c 2 -a 0 -i 22 -k AGT
r -t 0.110250092 -s 31 -d 31 -p tcp -e 60 -c 2 -a 0 -i 7 -k AGT
+ -t 0.110250092 -s 31 -d -1 -p ack -e 40 -c 2 -a 0 -i 23 -k AGT 
- -t 0.110250092 -s 31 -d -1 -p ack -e 40 -c 2 -a 0 -i 23 -k AGT
h -t 0.110250092 -s 31 -d -1 -p ack -e 40 -c 2 -a 0 -i 23 -k AGT
+ -t 0.121089067 -s 36 -d -1 -p message -e 32 -c 2 -a 0 -i 24 -k RTR 
- -t 0.121089067 -s 36 -d -1 -p message -e 32 -c 2 -a 0 -i 24 -k RTR
h -t 0.121089067 -s 36 -d -1 -p message -e 32 -c 2 -a 0 -i 24 -k RTR
r -t 0.123539274 -s 31 -d -1 -p message -e 32 -c 2 -a 0 -i 24 -k RTR
r -t 0.123539398 -s 37 -d -1 -p message -e 32 -c 2 -a 0 -i 24 -k RTR
r -t 0.123539398 -s 35 -d -1 -p message -e 32 -c 2 -a 0 -i 24 -k RTR
r -t 0.123539458 -s 32 -d -1 -p message -e 32 -c 2 -a 0 -i 24 -k RTR
r -t 0.123539597 -s 27 -d -1 -p message -e 32 -c 2 -a 0 -i 24 -k RTR
r -t 0.123539681 -s 21 -d -1 -p message -e 32 -c 2 -a 0 -i 24 -k RTR
r -t 0.123539734 -s 38 -d -1 -p message -e 32 -c 2 -a 0 -i 24 -k RTR
r -t 0.123539765 -s 33 -d -1 -p message -e 32 -c 2 -a 0 -i 24 -k RTR
r -t 0.123539768 -s 20 -d -1 -p message -e 32 -c 2 -a 0 -i 24 -k RTR
r -t 0.123539845 -s 28 -d -1 -p message -e 32 -c 2 -a 0 -i 24 -k RTR
r -t 0.123539890 -s 16 -d -1 -p message -e 32 -c 2 -a 0 -i 24 -k RTR
+ -t 0.134504863 -s 28 -d -1 -p message -e 32 -c 2 -a 0 -i 25 -k RTR 
- -t 0.134504863 -s 28 -d -1 -p message -e 32 -c 2 -a 0 -i 25 -k RTR
h -t 0.134504863 -s 28 -d -1 -p message -e 32 -c 2 -a 0 -i 25 -k RTR
r -t 0.138235069 -s 23 -d -1 -p message -e 32 -c 2 -a 0 -i 25 -k RTR
r -t 0.138235070 -s 33 -d -1 -p message -e 32 -c 2 -a 0 -i 25 -k RTR
r -t 0.138235193 -s 27 -d -1 -p message -e 32 -c 2 -a 0 -i 25 -k RTR
r -t 0.138235249 -s 32 -d -1 -p message -e 32 -c 2 -a 0 -i 25 -k RTR
r -t 0.138235253 -s 34 -d -1 -p message -e 32 -c 2 -a 0 -i 25 -k RTR
r -t 0.138235255 -s 24 -d -1 -p message -e 32 -c 2 -a 0 -i 25 -k RTR
r -t 0.138235258 -s 22 -d -1 -p message -e 32 -c 2 -a 0 -i 25 -k RTR
r -t 0.138235269 -s 38 -d -1 -p message -e 32 -c 2 -a 0 -i 25 -k RTR
r -t 0.138235275 -s 18 -d -1 -p message -e 32 -c 2 -a 0 -i 25 -k RTR
r -t 0.138235387 -s 37 -d -1 -p message -e 32 -c 2 -a 0 -i 25 -k RTR
r -t 0.138235390 -s 39 -d -1 -p message -e 32 -c 2 -a 0 -i 25 -k RTR
r -t 0.138235397 -s 17 -d -1 -p message -e 32 -c 2 -a 0 -i 25 -k RTR
r -t 0.138235523 -s 26 -d -1 -p message -e 32 -c 2 -a 0 -i 25 -k RTR
r -t 0.138235554 -s 31 -d -1 -p message -e 32 -c 2 -a 0 -i 25 -k RTR
r -t 0.138235554 -s 21 -d -1 -p message -e 32 -c 2 -a 0 -i 25 -k RTR
r -t 0.138235567 -s 14 -d -1 -p message -e 32 -c 2 -a 0 -i 25 -k RTR
r -t 0.138235639 -s 36 -d -1 -p message -e 32 -c 2 -a 0 -i 25 -k RTR
r -t 0.138235642 -s 16 -d -1 -p message -e 32 -c 2 -a 0 -i 25 -k RTR
+ -t 0.244534526 -s 15 -d -1 -p message -e 32 -c 2 -a 0 -i 26 -k RTR 
- -t 0.244534526 -s 15 -d -1 -p message -e 32 -c 2 -a 0 -i 26 -k RTR
h -t 0.244534526 -s 15 -d -1 -p message -e 32 -c 2 -a 0 -i 26 -k RTR
r -t 0.248584721 -s 20 -d -1 -p message -e 32 -c 2 -a 0 -i 26 -k RTR
r -t 0.248584735 -s 10 -d -1 -p message -e 32 -c 2 -a 0 -i 26 -k RTR
r -t 0.248584864 -s 16 -d -1 -p message -e 32 -c 2 -a 0 -i 26 -k RTR
r -t 0.248584919 -s 21 -d -1 -p message -e 32 -c 2 -a 0 -i 26 -k RTR
r -t 0.248584921 -s 11 -d -1 -p message -e 32 -c 2 -a 0 -i 26 -k RTR
r -t 0.248584926 -s 25 -d -1 -p message -e 32 -c 2 -a 0 -i 26 -k RTR
r -t 0.248584942 -s 5 -d -1 -p message -e 32 -c 2 -a 0 -i 26 -k RTR
r -t 0.248585048 -s 26 -d -1 -p message -e 32 -c 2 -a 0 -i 26 -k RTR
r -t 0.248585058 -s 6 -d -1 -p message -e 32 -c 2 -a 0 -i 26 -k RTR
r -t 0.248585133 -s 30 -d -1 -p message -e 32 -c 2 -a 0 -i 26 -k RTR
r -t 0.248585152 -s 0 -d -1 -p message -e 32 -c 2 -a 0 -i 26 -k RTR
r -t 0.248585182 -s 17 -d -1 -p message -e 32 -c 2 -a 0 -i 26 -k RTR
r -t 0.248585211 -s 22 -d -1 -p message -e 32 -c 2 -a 0 -i 26 -k RTR
r -t 0.248585230 -s 12 -d -1 -p message -e 32 -c 2 -a 0 -i 26 -k RTR
r -t 0.248585298 -s 27 -d -1 -p message -e 32 -c 2 -a 0 -i 26 -k RTR
r -t 0.248585311 -s 7 -d -1 -p message -e 32 -c 2 -a 0 -i 26 -k RTR
r -t 0.248585346 -s 35 -d -1 -p message -e 32 -c 2 -a 0 -i 26 -k RTR
+ -t 0.322548772 -s 26 -d -1 -p message -e 32 -c 2 -a 0 -i 27 -k RTR 
- -t 0.322548772 -s 26 -d -1 -p message -e 32 -c 2 -a 0 -i 27 -k RTR
h -t 0.322548772 -s 26 -d -1 -p message -e 32 -c 2 -a 0 -i 27 -k RTR
r -t 0.325958965 -s 21 -d -1 -p message -e 32 -c 2 -a 0 -i 27 -k RTR
r -t 0.325958977 -s 31 -d -1 -p message -e 32 -c 2 -a 0 -i 27 -k RTR
r -t 0.325959097 -s 27 -d -1 -p message -e 32 -c 2 -a 0 -i 27 -k RTR
r -t 0.325959105 -s 25 -d -1 -p message -e 32 -c 2 -a 0 -i 27 -k RTR
r -t 0.325959151 -s 22 -d -1 -p message -e 32 -c 2 -a 0 -i 27 -k RTR
r -t 0.325959160 -s 20 -d -1 -p message -e 32 -c 2 -a 0 -i 27 -k RTR
r -t 0.325959164 -s 30 -d -1 -p message -e 32 -c 2 -a 0 -i 27 -k RTR
r -t 0.325959173 -s 32 -d -1 -p message -e 32 -c 2 -a 0 -i 27 -k RTR
r -t 0.325959178 -s 16 -d -1 -p message -e 32 -c 2 -a 0 -i 27 -k RTR
r -t 0.325959183 -s 36 -d -1 -p message -e 32 -c 2 -a 0 -i 27 -k RTR
r -t 0.325959289 -s 17 -d -1 -p message -e 32 -c 2 -a 0 -i 27 -k RTR
r -t 0.325959292 -s 15 -d -1 -p message -e 32 -c 2 -a 0 -i 27 -k RTR
r -t 0.325959294 -s 37 -d -1 -p message -e 32 -c 2 -a 0 -i 27 -k RTR
r -t 0.325959309 -s 35 -d -1 -p message -e 32 -c 2 -a 0 -i 27 -k RTR
r -t 0.325959376 -s 11 -d -1 -p message -e 32 -c 2 -a 0 -i 27 -k RTR
r -t 0.325959422 -s 28 -d -1 -p message -e 32 -c 2 -a 0 -i 27 -k RTR
r -t 0.325959452 -s 23 -d -1 -p message -e 32 -c 2 -a 0 -i 27 -k RTR
r -t 0.325959463 -s 10 -d -1 -p message -e 32 -c 2 -a 0 -i 27 -k RTR
r -t 0.325959468 -s 12 -d -1 -p message -e 32 -c 2 -a 0 -i 27 -k RTR
r -t 0.325959475 -s 33 -d -1 -p message -e 32 -c 2 -a 0 -i 27 -k RTR
r -t 0.325959545 -s 18 -d -1 -p message -e 32 -c 2 -a 0 -i 27 -k RTR
r -t 0.325959551 -s 38 -d -1 -p message -e 32 -c 2 -a 0 -i 27 -k RTR
r -t 0.325959582 -s 6 -d -1 -p message -e 32 -c 2 -a 0 -i 27 -k RTR
+ -t 0.350872753 -s 3 -d -1 -p message -e 32 -c 2 -a 0 -i 28 -k RTR 
- -t 0.350872753 -s 3 -d -1 -p message -e 32 -c 2 -a 0 -i 28 -k RTR
h -t 0.350872753 -s 3 -d -1 -p message -e 32 -c 2 -a 0 -i 28 -k RTR
r -t 0.354922960 -s 8 -d -1 -p message -e 32 -c 2 -a 0 -i 28 -k RTR
r -t 0.354923078 -s 4 -d -1 -p message -e 32 -c 2 -a 0 -i 28 -k RTR
r -t 0.354923094 -s 2 -d -1 -p message -e 32 -c 2 -a 0 -i 28 -k RTR
r -t 0.354923138 -s 7 -d -1 -p message -e 32 -c 2 -a 0 -i 28 -k RTR
r -t 0.354923153 -s 9 -d -1 -p message -e 32 -c 2 -a 0 -i 28 -k RTR
r -t 0.354923164 -s 13 -d -1 -p message -e 32 -c 2 -a 0 -i 28 -k RTR
r -t 0.354923269 -s 12 -d -1 -p message -e 32 -c 2 -a 0 -i 28 -k RTR
r -t 0.354923276 -s 14 -d -1 -p message -e 32 -c 2 -a 0 -i 28 -k RTR
r -t 0.354923413 -s 1 -d -1 -p message -e 32 -c 2 -a 0 -i 28 -k RTR
r -t 0.354923445 -s 19 -d -1 -p message -e 32 -c 2 -a 0 -i 28 -k RTR
r -t 0.354923448 -s 17 -d -1 -p message -e 32 -c 2 -a 0 -i 28 -k RTR
+ -t 0.354923448 -s 17 -d 3 -p tcp -e 80 -c 2 -a 0 -i 22 -k RTR 
- -t 0.354923448 -s 17 -d 3 -p tcp -e 80 -c 2 -a 0 -i 22 -k RTR
h -t 0.354923448 -s 17 -d 3 -p tcp -e 80 -c 2 -a 0 -i 22 -k RTR
r -t 0.354923528 -s 11 -d -1 -p message -e 32 -c 2 -a 0 -i 28 -k RTR
+ -t 0.362930787 -s 29 -d -1 -p message -e 32 -c 2 -a 0 -i 29 -k RTR 
- -t 0.362930787 -s 29 -d -1 -p message -e 32 -c 2 -a 0 -i 29 -k RTR
h -t 0.362930787 -s 29 -d -1 -p message -e 32 -c 2 -a 0 -i 29 -k RTR
r -t 0.368053530 -s 3 -d 3 -p tcp -e 80 -c 2 -a 0 -i 22 -k AGT
+ -t 0.368053530 -s 3 -d -1 -p ack -e 40 -c 2 -a 0 -i 30 -k AGT 
- -t 0.368053530 -s 3 -d -1 -p ack -e 40 -c 2 -a 0 -i 30 -k AGT
h -t 0.368053530 -s 3 -d -1 -p ack -e 40 -c 2 -a 0 -i 30 -k AGT
r -t 0.371268991 -s 24 -d -1 -p message -e 32 -c 2 -a 0 -i 29 -k RTR
r -t 0.371269120 -s 28 -d -1 -p message -e 32 -c 2 -a 0 -i 29 -k RTR
r -t 0.371269165 -s 33 -d -1 -p message -e 32 -c 2 -a 0 -i 29 -k RTR
r -t 0.371269175 -s 23 -d -1 -p message -e 32 -c 2 -a 0 -i 29 -k RTR
r -t 0.371269184 -s 39 -d -1 -p message -e 32 -c 2 -a 0 -i 29 -k RTR
r -t 0.371269204 -s 19 -d -1 -p message -e 32 -c 2 -a 0 -i 29 -k RTR
r -t 0.371269296 -s 38 -d -1 -p message -e 32 -c 2 -a 0 -i 29 -k RTR
r -t 0.371269304 -s 18 -d -1 -p message -e 32 -c 2 -a 0 -i 29 -k RTR
r -t 0.371269406 -s 14 -d -1 -p message -e 32 -c 2 -a 0 -i 29 -k RTR
r -t 0.371269445 -s 27 -d -1 -p message -e 32 -c 2 -a 0 -i 29 -k RTR
r -t 0.371269480 -s 13 -d -1 -p message -e 32 -c 2 -a 0 -i 29 -k RTR
r -t 0.371269488 -s 22 -d -1 -p message -e 32 -c 2 -a 0 -i 29 -k RTR
r -t 0.371269558 -s 37 -d -1 -p message -e 32 -c 2 -a 0 -i 29 -k RTR
r -t 0.371269615 -s 9 -d -1 -p message -e 32 -c 2 -a 0 -i 29 -k RTR
+ -t 0.420549113 -s 10 -d -1 -p message -e 32 -c 2 -a 0 -i 31 -k RTR 
- -t 0.420549113 -s 10 -d -1 -p message -e 32 -c 2 -a 0 -i 31 -k RTR
h -t 0.420549113 -s 10 -d -1 -p message -e 32 -c 2 -a 0 -i 31 -k RTR
r -t 0.424599321 -s 5 -d -1 -p message -e 32 -c 2 -a 0 -i 31 -k RTR
r -t 0.424599445 -s 11 -d -1 -p message -e 32 -c 2 -a 0 -i 31 -k RTR
r -t 0.424599500 -s 6 -d -1 -p message -e 32 -c 2 -a 0 -i 31 -k RTR
r -t 0.424599503 -s 16 -d -1 -p message -e 32 -c 2 -a 0 -i 31 -k RTR
r -t 0.424599512 -s 20 -d -1 -p message -e 32 -c 2 -a 0 -i 31 -k RTR
r -t 0.424599532 -s 0 -d -1 -p message -e 32 -c 2 -a 0 -i 31 -k RTR
r -t 0.424599637 -s 1 -d -1 -p message -e 32 -c 2 -a 0 -i 31 -k RTR
r -t 0.424599643 -s 21 -d -1 -p message -e 32 -c 2 -a 0 -i 31 -k RTR
r -t 0.424599715 -s 25 -d -1 -p message -e 32 -c 2 -a 0 -i 31 -k RTR
r -t 0.424599784 -s 17 -d -1 -p message -e 32 -c 2 -a 0 -i 31 -k RTR
r -t 0.424599800 -s 26 -d -1 -p message -e 32 -c 2 -a 0 -i 31 -k RTR
r -t 0.424599869 -s 22 -d -1 -p message -e 32 -c 2 -a 0 -i 31 -k RTR
r -t 0.424599878 -s 2 -d -1 -p message -e 32 -c 2 -a 0 -i 31 -k RTR
r -t 0.424599923 -s 30 -d -1 -p message -e 32 -c 2 -a 0 -i 31 -k RTR
+ -t 0.429352354 -s 17 -d -1 -p message -e 44 -c 2 -a 0 -i 32 -k RTR 
- -t 0.429352354 -s 17 -d -1 -p message -e 44 -c 2 -a 0 -i 32 -k RTR
h -t 0.429352354 -s 17 -d -1 -p message -e 44 -c 2 -a 0 -i 32 -k RTR
r -t 0.432186553 -s 12 -d -1 -p message -e 44 -c 2 -a 0 -i 32 -k RTR
r -t 0.432186659 -s 16 -d -1 -p message -e 44 -c 2 -a 0 -i 32 -k RTR
r -t 0.432186707 -s 18 -d -1 -p message -e 44 -c 2 -a 0 -i 32 -k RTR
r -t 0.432186732 -s 21 -d -1 -p message -e 44 -c 2 -a 0 -i 32 -k RTR
r -t 0.432186758 -s 13 -d -1 -p message -e 44 -c 2 -a 0 -i 32 -k RTR
r -t 0.432186758 -s 23 -d -1 -p message -e 44 -c 2 -a 0 -i 32 -k RTR
r -t 0.432186758 -s 27 -d -1 -p message -e 44 -c 2 -a 0 -i 32 -k RTR
r -t 0.432186858 -s 6 -d -1 -p message -e 44 -c 2 -a 0 -i 32 -k RTR
r -t 0.432186866 -s 26 -d -1 -p message -e 44 -c 2 -a 0 -i 32 -k RTR
r -t 0.432186878 -s 8 -d -1 -p message -e 44 -c 2 -a 0 -i 32 -k RTR
r -t 0.432186896 -s 28 -d -1 -p message -e 44 -c 2 -a 0 -i 32 -k RTR
r -t 0.432186959 -s 2 -d -1 -p message -e 44 -c 2 -a 0 -i 32 -k RTR
r -t 0.432186987 -s 32 -d -1 -p message -e 44 -c 2 -a 0 -i 32 -k RTR
r -t 0.432187002 -s 15 -d -1 -p message -e 44 -c 2 -a 0 -i 32 -k RTR
r -t 0.432187020 -s 19 -d -1 -p message -e 44 -c 2 -a 0 -i 32 -k RTR
r -t 0.432187024 -s 10 -d -1 -p message -e 44 -c 2 -a 0 -i 32 -k RTR
r -t 0.432187026 -s 20 -d -1 -p message -e 44 -c 2 -a 0 -i 32 -k RTR
r -t 0.432187032 -s 1 -d -1 -p message -e 44 -c 2 -a 0 -i 32 -k RTR
r -t 0.432187042 -s 31 -d -1 -p message -e 44 -c 2 -a 0 -i 32 -k RTR
r -t 0.432187049 -s 14 -d -1 -p message -e 44 -c 2 -a 0 -i 32 -k RTR
r -t 0.432187060 -s 24 -d -1 -p message -e 44 -c 2 -a 0 -i 32 -k RTR
r -t 0.432187082 -s 33 -d -1 -p message -e 44 -c 2 -a 0 -i 32 -k RTR
r -t 0.432187110 -s 5 -d -1 -p message -e 44 -c 2 -a 0 -i 32 -k RTR
r -t 0.432187115 -s 25 -d -1 -p message -e 44 -c 2 -a 0 -i 32 -k RTR
r -t 0.432187155 -s 9 -d -1 -p message -e 44 -c 2 -a 0 -i 32 -k RTR
r -t 0.432187172 -s 37 -d -1 -p message -e 44 -c 2 -a 0 -i 32 -k RTR
+ -t 0.458052920 -s 34 -d -1 -p message -e 32 -c 2 -a 0 -i 33 -k RTR 
- -t 0.458052920 -s 34 -d -1 -p message -e 32 -c 2 -a 0 -i 33 -k RTR
h -t 0.458052920 -s 34 -d -1 -p message -e 32 -c 2 -a 0 -i 33 -k RTR
r -t 0.461143116 -s 39 -d -1 -p message -e 32 -c 2 -a 0 -i 33 -k RTR
r -t 0.461143117 -s 29 -d -1 -p message -e 32 -c 2 -a 0 -i 33 -k RTR
r -t 0.461143228 -s 33 -d -1 -p message -e 32 -c 2 -a 0 -i 33 -k RTR
r -t 0.461143305 -s 28 -d -1 -p message -e 32 -c 2 -a 0 -i 33 -k RTR
r -t 0.461143437 -s 23 -d -1 -p message -e 32 -c 2 -a 0 -i 33 -k RTR
r -t 0.461143535 -s 19 -d -1 -p message -e 32 -c 2 -a 0 -i 33 -k RTR
r -t 0.461143559 -s 32 -d -1 -p message -e 32 -c 2 -a 0 -i 33 -k RTR
r -t 0.461143600 -s 18 -d -1 -p message -e 32 -c 2 -a 0 -i 33 -k RTR
+ -t 0.461143600 -s 18 -d 34 -p tcp -e 80 -c 2 -a 0 -i 18 -k RTR 
- -t 0.461143600 -s 18 -d 34 -p tcp -e 80 -c 2 -a 0 -i 18 -k RTR
h -t 0.461143600 -s 18 -d 34 -p tcp -e 80 -c 2 -a 0 -i 18 -k RTR
r -t 0.461143610 -s 27 -d -1 -p message -e 32 -c 2 -a 0 -i 33 -k RTR
r -t 0.461143706 -s 22 -d -1 -p message -e 32 -c 2 -a 0 -i 33 -k RTR
r -t 0.461143736 -s 14 -d -1 -p message -e 32 -c 2 -a 0 -i 33 -k RTR
r -t 0.475553638 -s 34 -d 34 -p tcp -e 80 -c 2 -a 0 -i 18 -k AGT
+ -t 0.475553638 -s 34 -d -1 -p ack -e 40 -c 2 -a 0 -i 35 -k AGT 
- -t 0.475553638 -s 34 -d -1 -p ack -e 40 -c 2 -a 0 -i 35 -k AGT
h -t 0.475553638 -s 34 -d -1 -p ack -e 40 -c 2 -a 0 -i 35 -k AGT
+ -t 0.475852654 -s 27 -d -1 -p message -e 32 -c 2 -a 0 -i 34 -k RTR 
- -t 0.475852654 -s 27 -d -1 -p message -e 32 -c 2 -a 0 -i 34 -k RTR
h -t 0.475852654 -s 27 -d -1 -p message -e 32 -c 2 -a 0 -i 34 -k RTR
r -t 0.479582856 -s 22 -d -1 -p message -e 32 -c 2 -a 0 -i 34 -k RTR
r -t 0.479582886 -s 32 -d -1 -p message -e 32 -c 2 -a 0 -i 34 -k RTR
r -t 0.479582977 -s 28 -d -1 -p message -e 32 -c 2 -a 0 -i 34 -k RTR
r -t 0.479583021 -s 21 -d -1 -p message -e 32 -c 2 -a 0 -i 34 -k RTR
r -t 0.479583025 -s 23 -d -1 -p message -e 32 -c 2 -a 0 -i 34 -k RTR
r -t 0.479583040 -s 31 -d -1 -p message -e 32 -c 2 -a 0 -i 34 -k RTR
r -t 0.479583069 -s 37 -d -1 -p message -e 32 -c 2 -a 0 -i 34 -k RTR
r -t 0.479583072 -s 33 -d -1 -p message -e 32 -c 2 -a 0 -i 34 -k RTR
r -t 0.479583162 -s 16 -d -1 -p message -e 32 -c 2 -a 0 -i 34 -k RTR
r -t 0.479583169 -s 18 -d -1 -p message -e 32 -c 2 -a 0 -i 34 -k RTR
r -t 0.479583181 -s 36 -d -1 -p message -e 32 -c 2 -a 0 -i 34 -k RTR
r -t 0.479583189 -s 38 -d -1 -p message -e 32 -c 2 -a 0 -i 34 -k RTR
r -t 0.479583255 -s 12 -d -1 -p message -e 32 -c 2 -a 0 -i 34 -k RTR
r -t 0.479583310 -s 29 -d -1 -p message -e 32 -c 2 -a 0 -i 34 -k RTR
r -t 0.479583333 -s 20 -d -1 -p message -e 32 -c 2 -a 0 -i 34 -k RTR
r -t 0.479583336 -s 24 -d -1 -p message -e 32 -c 2 -a 0 -i 34 -k RTR
r -t 0.479583340 -s 30 -d -1 -p message -e 32 -c 2 -a 0 -i 34 -k RTR
r -t 0.479583341 -s 13 -d -1 -p message -e 32 -c 2 -a 0 -i 34 -k RTR
r -t 0.479583343 -s 34 -d -1 -p message -e 32 -c 2 -a 0 -i 34 -k RTR
r -t 0.479583416 -s 15 -d -1 -p message -e 32 -c 2 -a 0 -i 34 -k RTR
r -t 0.479583434 -s 39 -d -1 -p message -e 32 -c 2 -a 0 -i 34 -k RTR
r -t 0.479583451 -s 7 -d -1 -p message -e 32 -c 2 -a 0 -i 34 -k RTR
+ -t 0.668165786 -s 14 -d -1 -p message -e 32 -c 2 -a 0 -i 36 -k RTR 
- -t 0.668165786 -s 14 -d -1 -p message -e 32 -c 2 -a 0 -i 36 -k RTR
h -t 0.668165786 -s 14 -d -1 -p message -e 32 -c 2 -a 0 -i 36 -k RTR
r -t 0.672535985 -s 19 -d -1 -p message -e 32 -c 2 -a 0 -i 36 -k RTR
r -t 0.672536000 -s 9 -d -1 -p message -e 32 -c 2 -a 0 -i 36 -k RTR
r -t 0.672536086 -s 13 -d -1 -p message -e 32 -c 2 -a 0 -i 36 -k RTR
r -t 0.672536158 -s 8 -d -1 -p message -e 32 -c 2 -a 0 -i 36 -k RTR
r -t 0.672536158 -s 18 -d -1 -p message -e 32 -c 2 -a 0 -i 36 -k RTR
r -t 0.672536203 -s 24 -d -1 -p message -e 32 -c 2 -a 0 -i 36 -k RTR
r -t 0.672536205 -s 4 -d -1 -p message -e 32 -c 2 -a 0 -i 36 -k RTR
r -t 0.672536301 -s 3 -d -1 -p message -e 32 -c 2 -a 0 -i 36 -k RTR
r -t 0.672536318 -s 23 -d -1 -p message -e 32 -c 2 -a 0 -i 36 -k RTR
r -t 0.672536404 -s 29 -d -1 -p message -e 32 -c 2 -a 0 -i 36 -k RTR
r -t 0.672536413 -s 12 -d -1 -p message -e 32 -c 2 -a 0 -i 36 -k RTR
r -t 0.672536454 -s 7 -d -1 -p message -e 32 -c 2 -a 0 -i 36 -k RTR
r -t 0.672536480 -s 17 -d -1 -p message -e 32 -c 2 -a 0 -i 36 -k RTR
r -t 0.672536490 -s 28 -d -1 -p message -e 32 -c 2 -a 0 -i 36 -k RTR
r -t 0.672536554 -s 22 -d -1 -p message -e 32 -c 2 -a 0 -i 36 -k RTR
+ -t 0.686277528 -s 37 -d -1 -p message -e 32 -c 2 -a 0 -i 37 -k RTR 
- -t 0.686277528 -s 37 -d -1 -p message -e 32 -c 2 -a 0 -i 37 -k RTR
h -t 0.686277528 -s 37 -d -1 -p message -e 32 -c 2 -a 0 -i 37 -k RTR
r -t 0.688727703 -s 32 -d -1 -p message -e 32 -c 2 -a 0 -i 37 -k RTR
r -t 0.688727845 -s 36 -d -1 -p message -e 32 -c 2 -a 0 -i 37 -k RTR